<?xml version="1.0" encoding="UTF-8" standalone="no" ?>
<VTKFile byte_order="LittleEndian" type="UnstructuredGrid" version="0.1">
  <UnstructuredGrid>
    <Piece NumberOfCells="0" NumberOfPoints="2">
      <PointData>
        <DataArray Name="characteristic-length" NumberOfComponents="1" format="ascii" type="Float32">
          3.600189810799044
          2.8034413490120316
        </DataArray>
        <DataArray Name="mass" NumberOfComponents="1" format="ascii" type="Float32">
          880
          500
        </DataArray>
        <DataArray Name="area" NumberOfComponents="1" format="ascii" type="Float32">
          10.179833580708692
          6.172666745899061
        </DataArray>
        <DataArray Name="area-to-mass" NumberOfComponents="1" format="ascii" type="Float32">
          0.011567992705350787
          0.012345333491798123
        </DataArray>
        <DataArray Name="velocity" NumberOfComponents="3" format="ascii" type="Float32">
          0 0 0
          9360 0 0
        </DataArray>
        <DataArray Name="ejection-velocity" NumberOfComponents="3" format="ascii" type="Float32">
          0 0 0
          0 0 0
        </DataArray>
      </PointData>
      <CellData/>
      <Points>
        <DataArray Name="position" NumberOfComponents="3" format="ascii" type="Float32">
          0 0 0
          40 20 100
        </DataArray>
      </Points>
      <Cells>
        <DataArray Name="types" NumberOfComponents="0" format="ascii" type="Float32"/>
      </Cells>
    </Piece>
  </UnstructuredGrid>
</VTKFile>
