<?xml version="1.0" encoding="UTF-8" standalone="no" ?>
<VTKFile byte_order="LittleEndian" type="UnstructuredGrid" version="0.1">
  <UnstructuredGrid>
    <Piece NumberOfCells="0" NumberOfPoints="1056">
      <PointData>
        <DataArray Name="characteristic-length" NumberOfComponents="1" format="ascii" type="Float32">
          0.0918369974614679
          0.05233865179478779
          0.07123192476613724
          0.05048680475605181
          0.16703269532303602
          0.07626021698400645
          0.06071802572368229
          0.056007573919022335
          0.0583333503024996
          0.12141933392717633
          0.07154446813382451
          0.06448026622307727
          0.06165625376532366
          0.08556579663703232
          0.06078074785388563
          0.05682525855694926
          0.05822160852595226
          0.1000238354955334
          0.09681304601242802
          0.060619340724959066
          0.05296828342373963
          0.09163741392981783
          0.06969693949994249
          0.38841764917023863
          0.05676235208340048
          0.0547567691065374
          0.09176363887251292
          0.057528370103147826
          0.13668381919411512
          0.13379987678763264
          0.06954742359526064
          0.053676555712890935
          0.17411891596147944
          0.08582973015304685
          0.050798918158613926
          0.3927893329260932
          0.06352972117171078
          0.09116157619179686
          0.06700583816662697
          0.10093564715534394
          0.05506285203066754
          0.22128439385655357
          0.055547961166566656
          0.06270960286643354
          0.08245363615513865
          0.12306707800337958
          0.05424862187816768
          0.07473974153912358
          0.05645386051066412
          0.09650503020332032
          0.08369617774303054
          0.07084909030470231
          0.12007752214756058
          0.05025462815680966
          0.05890908245653222
          0.09631865857226302
          0.05086324487694101
          0.2069381722353654
          0.18594895039029571
          0.05032327057306308
          0.06748491909276183
          0.10225127764773548
          0.07286701424607113
          0.08050381391131035
          0.28297122354596405
          0.07406807160041096
          0.054642952112455484
          0.14667964760750246
          0.08470293603680758
          0.1094943941837608
          0.07946968996005589
          0.05474903826651464
          0.08651415373312668
          0.1433288691911116
          0.06284361431718667
          0.08981925473583163
          0.10767538299173901
          0.10991297842695663
          0.06420678080877615
          0.05298746414369428
          0.08163044576316243
          0.0566348869306632
          0.05094401079279213
          0.07669363122125993
          0.09465569324854742
          0.05437158366991812
          0.09244398211868489
          0.3391454551192358
          0.09573156782944627
          0.07796254275657631
          0.09101887218419036
          0.11130544596629555
          0.05203108416851726
          0.07496808841163977
          0.07651858256394405
          0.07376931813564941
          0.20745051613533577
          0.12274466991503961
          0.05556710791979332
          0.09525614016189812
          0.055637723208665245
          0.16019103485276964
          0.10657748500920629
          0.06455862951118266
          0.06371850168022097
          0.08662935223943581
          0.22230160394531986
          0.05240627220591315
          0.2795239973329065
          0.10660299737128627
          0.06429612348976683
          0.06172194056125445
          0.1219362547226235
          0.11815913620788601
          0.07366508609826511
          0.05608097944738427
          0.2900664842731567
          0.08565407584370155
          0.14115217070637864
          0.05823219623007719
          0.07857402135905175
          0.21543608854224186
          0.1532753773861872
          0.3403995066486392
          0.10219140295600415
          0.05348841122911433
          0.0993284742074217
          0.26523380360461574
          0.05372231833036825
          0.20352367731571291
          0.05356215796785965
          0.15631863460544598
          0.06250976555654457
          0.05180072579174623
          0.2761295510400884
          0.0656033752774556
          0.08888262727984869
          0.13968328554947934
          0.05116593229137094
          0.060196028039321475
          0.16199019528188702
          0.0541462849919557
          0.05876574822520715
          0.11682031916480948
          0.07788358554668692
          0.10289441881499563
          0.05266756368130932
          0.06289018168482656
          0.08858361128921279
          0.06747182879274141
          0.06851890826758562
          0.07002931105410586
          0.06453646042511499
          0.07152660854633665
          0.058912260504175244
          0.07685436744803266
          0.05737662650740286
          0.0963265291913521
          0.0741607119681766
          0.13837329157581088
          0.08954645381224718
          0.11489603893098904
          0.054790544159970554
          0.07698755792714246
          0.06546364004459776
          0.08337693617509774
          0.06610283639649228
          0.11393366502432455
          0.07411286791430348
          0.05228664736096772
          0.0577953156387989
          0.12958510123640746
          0.06534289359044054
          0.07521397135520722
          0.050215549792291155
          0.056655400890344855
          0.05767466402520831
          0.06363375013004938
          0.07242569757892268
          0.05190491221660565
          0.06984228057904021
          0.05468733747993575
          0.05700113774058753
          0.11396108157110903
          0.055913526002430575
          0.10027776869820944
          0.06098958744581685
          0.06012869942271338
          0.05083650132326225
          0.071375008977648
          0.1061322472883954
          1.1470305790855093
          0.062245759007417245
          0.09270113023639719
          0.06785099072178796
          0.10888751100515157
          0.13702937788283517
          0.1295579495716182
          0.08682519458368831
          0.058213207721063726
          0.08481355399439604
          0.05687198466252767
          0.05853325538414002
          0.07698156661283423
          0.08139769449506275
          0.07426163968135809
          0.10784643921670597
          0.06820412386098167
          0.05451399026003083
          0.10346189943296737
          0.2466390248622467
          0.07021507053027254
          0.05252850364885563
          0.13098645646024346
          0.1269704600985353
          0.146852513643157
          0.05565419238473757
          0.0906210235917174
          0.07109747071701218
          0.12181832519576605
          0.6951806270477201
          0.08606288282973427
          0.06623374996017053
          0.09929775075340014
          0.05758468212206788
          0.15698423146735968
          0.15346582009829726
          0.06290639297672723
          0.07996905387774934
          0.08280874860581693
          0.05444837081362239
          0.05237189663154888
          0.060890962202037414
          0.05005785501557456
          0.08024082404635041
          0.2436121843861284
          0.4850609860481875
          0.07801873795383947
          0.05886955836132187
          0.13069930808764524
          0.051572660318284905
          0.057619189597693236
          0.11315162814860844
          0.08628375036664626
          1.1489640822711387
          1.169237304154355
          0.05603285163161543
          0.07423336467208014
          0.19581512288070427
          0.05933669793657817
          0.055858097440460226
          0.1733822591862891
          0.08197571734120843
          0.12253553739975195
          0.1204098055666291
          0.05462876457450019
          0.05737581704039233
          0.23032024297635303
          0.1148416088215206
          0.07122656036391713
          0.06790676664380062
          0.05042543855629957
          0.07828528163635429
          0.05861325350005846
          0.05074469731225349
          0.0759042149219273
          0.0932196140515924
          0.050761123790093614
          0.06830502874034722
          0.12677215918214654
          0.41664605597990384
          0.14809990045035934
          0.05018691806237598
          0.07467382422954473
          0.05741682250182843
          0.06350967721061686
          0.12653352164832368
          0.06636732721385091
          0.20630885115492056
          0.07487272891041678
          0.06915480641913152
          0.07903457581092728
          0.05658888747063122
          0.06284200661480852
          0.07084894421387593
          0.057449209559524365
          0.1642913777026265
          0.18852329444484614
          0.3276097135136499
          0.07835978013464241
          0.09976616122881095
          0.05671091788060548
          0.09348553553042178
          0.1345522592851966
          0.07075099741151739
          0.09223261531524798
          0.08528629628103312
          0.07018625647797817
          0.05329037323387324
          0.17544021245123334
          0.0840228149341242
          0.15703443612905307
          0.09713077763934364
          0.09232365966879753
          0.07422519516849405
          0.6701787079439556
          0.06482762376357244
          0.05455912754529527
          0.0602946637945582
          0.13710950068113972
          0.06377621040229946
          0.1021719607030763
          0.059384754378224464
          0.07032385694202459
          0.12100946253783276
          0.14808614133469683
          0.05171634538308611
          0.05234812017492664
          0.09112914310237895
          0.05898611311145839
          0.0688386405460669
          0.23755776300076348
          0.6130690247713967
          0.0742451982579824
          0.053292259217366016
          0.10025024719899012
          0.0919352213925839
          0.05846643956353737
          0.08462881375131388
          0.19082170330798232
          0.12415887820652963
          0.10665585204542799
          0.06121109914879381
          0.21154369476298698
          0.07329634510695117
          0.05907366923351926
          0.2541036820344486
          0.0717896105171291
          0.08920726916410267
          0.11665873702822786
          0.06513429913754079
          0.14773975102398457
          0.26133371461869426
          0.5273302408500524
          0.18411124587165054
          0.10500837024479702
          0.12452024302836665
          0.06639534283633057
          0.06798080909066091
          0.21416929035882268
          0.08506629687004764
          0.058906570062826395
          0.3914385728861836
          0.05447409550159805
          0.06877294514266727
          0.10454812012951452
          0.08844297274142582
          0.06645233159092818
          0.07128197672043701
          0.22002382218095565
          0.06227555088016237
          0.06201320909693786
          0.06090268649713536
          0.1265349789300824
          0.217010545415707
          0.05285475388469931
          0.0715627559446397
          0.054783574083986646
          0.06709890459397799
          0.12560414744230033
          0.12465072127899103
          0.08272333621569335
          0.09860150241739069
          0.06032959600895608
          0.06357089486982458
          0.07446642421191255
          0.06245322544481515
          0.09869277956975332
          0.06502011983273759
          0.07180573929198736
          0.13482837981646517
          0.10759142344990986
          0.08753336706080522
          0.08217480011747942
          0.07793757518399719
          0.0703552752716238
          0.05068940657945736
          0.0522404714411527
          0.09514008987735913
          0.06628079446122023
          0.06717119001145182
          0.11663827310759262
          0.053273302936341506
          0.05623650993657291
          0.07145950105792022
          0.11130633715363737
          0.07903960128608202
          0.05260897122342118
          0.3134373352018476
          0.12734936324417467
          0.1218742428649906
          0.05020209500411087
          0.050333403869623976
          0.1772908131388532
          0.070079983265261
          0.07316060326841294
          0.0757387436626516
          0.06291841705553178
          0.05453700685755222
          0.0574225718230888
          0.17680521547536743
          0.3760232924307205
          0.07391110157361483
          0.5323236587112286
          0.09935919232952589
          0.10550169310124936
          0.05137649573286051
          0.07389094683018281
          0.07180461529310479
          0.10556628164092889
          0.10522758424903222
          0.05229191853750126
          0.07987218007817812
          0.0575799093094292
          0.05050480224723161
          0.1855633012672711
          0.08887633356847108
          0.08104314328956905
          0.06404933638146751
          0.11381764909097739
          0.17835056350036446
          0.05016648331613094
          0.051241398800822985
          0.07302696391870238
          0.2383708476531596
          0.07006734049083642
          0.09400206218237539
          0.06741069536752889
          0.22688782590135367
          0.09442898451621488
          0.2977620513758341
          0.06648800683079374
          0.2123062298788412
          0.08925294837907123
          0.1668936519816936
          0.058260334885200445
          0.06525323481848314
          0.06184324637035292
          0.05665844375120379
          0.06131097268999285
          0.2623855629257535
          0.10097507586135179
          0.38278550823823193
          1.730664431221148
          0.08293841179439608
          0.2098957346775113
          0.09546506609199107
          0.05886521621353137
          0.05374112241244246
          0.18039823614474956
          0.05527671001287571
          0.1134406230346127
          0.05987022583440369
          0.3100574012228892
          0.056226194943544604
          0.20904550467203337
          0.11508496555402961
          0.05863219428169805
          0.05363664245286026
          0.05155669356863269
          0.06313952415199986
          0.08982924702785888
          0.05116274768049779
          0.07775091842441378
          0.09948837067902942
          0.06181617939757898
          0.06521983734493399
          0.06781271690693105
          0.16309184497811866
          0.051325969739584164
          0.07417521774301646
          0.13079382280304236
          0.08240224297786593
          0.09392895842559813
          0.09113004955378529
          0.09593474453500073
          0.05056817321852877
          0.07307626582970324
          0.1480932248875363
          0.13652174847996712
          0.05020913984661521
          0.06476615770084614
          0.05026702942956346
          0.0667034093050043
          0.08901944871755232
          0.09500436530482244
          0.30272243277868005
          0.37231759483921956
          0.08265912038669204
          0.060280283900457164
          0.05777481847341339
          0.05331130188224854
          0.11262884983974898
          0.14896637126842213
          0.29814201418258024
          0.10484307134988423
          0.06527758401684355
          0.06795144697878198
          0.08478984683681602
          0.051634517369834265
          0.058000210773720716
          0.0522065959847538
          0.4741592106282833
          0.07718602686310413
          0.1569329255501557
          0.15281484772627085
          0.07766150544049945
          0.0661368526517017
          0.052636238858200644
          0.07025920151621039
          0.0903701725916842
          0.12957665960185896
          0.12150939034568774
          0.10309581246898439
          0.05494638878782529
          0.06545874366459195
          0.1963381364649014
          0.19635241010663454
          0.05469222461897248
          0.11103595439368832
          0.06859512491525033
          0.057064471478647356
          0.08543662410493248
          0.0737417913424664
          0.23583825235490147
          0.0651844355296756
          0.05455585408523867
          0.06644119391098315
          0.059465260032192456
          0.06156841461106959
          0.07838869874450077
          0.058696063196420234
          0.05086255597646656
          0.08317203765309275
          0.059158735684768954
          0.16479665410772645
          0.11483225716493849
          0.06633116997589125
          0.2296998916376794
          0.05203017698005626
          0.05086917687806526
          0.45000945624515976
          0.10649496301860946
          0.09264458332935922
          0.5074726972229812
          0.10642745964179909
          0.055484672316506084
          0.0678063034059664
          0.07093926931909728
          0.09406503459656801
          0.05423441300619517
          0.08958165984630413
          0.1645955585695259
          0.11924031210119786
          0.06740718950453625
          0.2925945466958402
          0.10306621541312147
          0.06547813480265387
          0.07045468868134414
          0.4360409458235275
          0.12484297268293594
          0.16380139992978102
          0.053925368197600874
          0.08372316668008946
          0.10593228778636106
          0.06794672994571253
          0.059150225805478414
          0.07718977207192323
          0.06677629593960488
          0.05228095856522044
          0.06164869234316195
          0.10589890396659868
          0.082013844954255
          0.10817403670712662
          0.07202366747663201
          0.06703904674223549
          0.05006351467026507
          0.0647302747687397
          0.21373523905618183
          0.05596267597250924
          0.11778353509519175
          0.05805680646167153
          0.28116878752776764
          0.08828529725765144
          0.09813414845816049
          0.10228844246684843
          0.05098414184961607
          0.07949703266921762
          0.06575215641653762
          0.06688975908089627
          0.07395388656825023
          0.10797518900641673
          0.10010235259354253
          0.13919474220029251
          0.08561149733925277
          0.2747679349904012
          0.06831027842509917
          0.05095280854046592
          0.10050025071088127
          0.05282068310564865
          0.10620538964944269
          0.11361441707184564
          0.42988711624829307
          0.07250872118422592
          0.06310567746664678
          0.06687334390646019
          0.0764430818337467
          0.08007319889882017
          0.05115719970875632
          0.0577364724237114
          0.0636989195230405
          0.08787839685043132
          0.08366341835782971
          0.08799655869328525
          0.06927037602778517
          0.09077080753539594
          0.05825156794976774
          0.06965870974226165
          0.18855551417890098
          0.06629414269268673
          0.06261400518434738
          0.06051624870450958
          0.06912920665195411
          0.06854065285204383
          0.07982356493534609
          0.48650053603308674
          0.058127617698637946
          0.05744977708913701
          0.062181478075931274
          0.056718913485147286
          0.05132036353025168
          0.06462938568733137
          0.12022512832499671
          0.06315410764162847
          0.067180772492711
          0.17371555057866137
          0.06322703277274468
          0.11124656234210994
          0.13771312764002655
          0.07939440764290402
          0.14562950531862115
          0.12157049787239992
          0.05957805017699812
          0.05318957274890072
          0.08425744966157932
          0.075060581694032
          0.2059786691612058
          0.1015553995575475
          0.057226781663203746
          0.05091459426378024
          0.30744140628524613
          0.07886725328358711
          0.09493889316735683
          0.0639031621595962
          0.09146484393773759
          0.1354073056394848
          0.07382998220357775
          0.07869913916734637
          0.24545352529400025
          0.06823978304733194
          0.2975956628029449
          0.09429391779125804
          0.05680362201767289
          0.05095922449798787
          0.3443411694984117
          0.07259827219580589
          0.08245098674573453
          0.06597984175828973
          0.05616818455572565
          0.07469680159573627
          0.0848328645142921
          0.0689417260299966
          0.2766921665972606
          0.1663787838822486
          0.05291760319259131
          0.09751793535035642
          0.1433717638260964
          0.07289737033621617
          0.058730228465697365
          0.057965652693778784
          0.054765599820655875
          0.0514866271590293
          0.11251580316352551
          0.27608043356978845
          0.06204672919924062
          0.056033330824984545
          0.06715648100998144
          0.2168576320439697
          0.07506837271607511
          0.056434763886973244
          0.06576601241197234
          0.06417720404236067
          0.05507690287644616
          0.12150801552956988
          0.08178936866440797
          0.05129077244476784
          0.11536507718864332
          0.5584437890049088
          0.07908933711219535
          0.05574215272882789
          0.05852746463532037
          0.06034976548953793
          0.059465420774955056
          0.1015809710299683
          0.06121028703282395
          0.24877397446345723
          0.05617711945306596
          0.08928534292075054
          0.15125378117916197
          0.10311569045098455
          0.09009241144430996
          0.07304381093650568
          0.05393133299882589
          0.07654438193808616
          0.07923522958297802
          0.055792927821261516
          0.08255431074537639
          0.07410660860821955
          0.4056535920292636
          0.06102517250936146
          0.09996716399634235
          0.05020275930605421
          0.31163988148923283
          0.05373437893901484
          0.06558556021411173
          0.1385511046457244
          0.09833106526973855
          0.059431534673742036
          0.11393891787785256
          0.06180733104407808
          0.21069267615313808
          0.1548145071543692
          0.05136609198263469
          0.17541457520382972
          0.09801345242626718
          0.10411793513649803
          0.08232392982629545
          0.054412358792361684
          0.1485814086677095
          0.38575800328630355
          0.17258063336047225
          0.20529517506195064
          0.19745021235611834
          0.2741087833317043
          0.05697198801864216
          0.05131897853378219
          0.07459692968744701
          0.4394903415747527
          0.12530883246405153
          0.07207417710486812
          0.06799749304886002
          0.05694254070546
          0.06573924168260101
          0.07569191832825707
          0.13435953849959767
          0.05345605980392076
          0.08657089071619053
          0.07235396633301852
          0.05142992625770321
          0.08281324948684256
          0.08385837855307757
          0.05178007671930009
          0.07339756058084417
          0.14198008318466693
          0.16275788546936196
          0.06334025463757308
          0.1310059039522185
          0.055737777200268734
          0.05460857447535673
          0.07944977176001604
          0.09129170897573932
          0.13740202397666343
          0.05388477119434117
          0.05007011439216497
          0.05773424310213783
          0.07294532640437466
          0.16075441540874005
          0.11403158402194738
          0.09382414769296403
          0.07003027807563147
          0.1735749030949371
          0.09305476537070406
          0.06374166196735002
          0.10018236915691942
          0.07023708265290009
          0.07481635008583741
          0.3011511003749571
          0.11067916240383721
          0.053428776024180974
          0.07175092593710956
          0.18991241782266413
          0.1334110224612164
          0.07307608805220087
          0.1558389374864261
          0.2273839992603811
          0.0839222341441443
          0.05673499509679146
          0.08284136990158109
          0.052917760526551956
          0.762234863154282
          0.052170739199490626
          0.05582037229300641
          0.06198961762677623
          0.053669470888072626
          0.08384787808797464
          0.09288736087010768
          0.06889142808125062
          0.3154577823210975
          1.189705401072361
          0.052908180306808196
          0.061411124494483896
          0.06585665277831897
          0.8089765968494922
          0.17758006210336091
          0.05205756839009837
          0.06931632587372406
          0.19923179888149398
          0.06847126904168975
          0.05818138591152958
          0.6678803402244579
          0.08346536712967234
          0.14369900131984498
          0.20738436546701605
          0.11438390584388185
          0.07955316209385331
          0.05831574791960521
          0.05984041696291106
          0.050540511622830506
          0.0723176082273613
          0.05208672710212324
          0.12306199084840888
          0.13222610016411268
          0.07147341085747952
          0.056753742462446244
          0.10101477731803774
          0.06599646280745702
          0.115487003123355
          0.055156097748779415
          0.08362116343057355
          0.0552616716980156
          0.13969072298640894
          0.06544443409966896
          0.09614875583709646
          0.3926139729585378
          0.06806602832017032
          0.13165698505781534
          0.07845925178946746
          0.10229621527588416
          0.05373415786958012
          0.05413245079579411
          0.056355633643602875
          0.0629734076799362
          0.07061999869871956
          0.12500418114603276
          0.056525273395958475
          0.08916522045053997
          0.05667967358818893
          0.0925315176425944
          0.05032219596569387
          0.06276077374541242
          0.05803192513237785
          0.07635065280507179
          0.10186766670493831
          0.061745846409524026
          0.09731404213933613
          0.14238714930230292
          0.054825628714589784
          0.1109315637916989
          0.05670714917882717
          0.09626644329500152
          0.08843325733291561
          0.14564564909346095
          0.06470830749847344
          0.054157448279227645
          0.17569572079129256
          0.12117693795417486
          0.06176802137232588
          0.05015569381888425
          0.1247847080314512
          0.0645455974608319
          0.05908635452987139
          0.05950191666372176
          0.39405957435680034
          0.05339516831962593
          0.058712238313974395
          0.06061157230095555
          0.1102024510394221
          0.05750839990656122
          0.05246600021526002
          0.07001602946500814
          0.05118262087564281
          0.050727751461365975
          0.05773913129245671
          0.14655661015053875
          0.07666248598123479
          0.10549166692244813
          0.05297725092873116
          0.06964834681219002
          0.2440891008039484
          0.06202281444893034
          0.06297029349121543
          0.11563443504503744
          0.05581013253782433
          0.05262969346589909
          0.06365684596855686
          0.07270652310267225
          0.17295940215103775
          0.06024913938469599
          0.23293030601946543
          0.09970159505958585
          0.10136802126874013
          0.061153551294665535
          0.07648338312340067
          0.06177604149693331
          0.06406035228856874
          0.10856241231525889
          0.10297768535866932
          0.05693183615999575
          0.0872908723464125
          0.07155926724953882
          0.09046783922257771
          0.050255946703987094
          0.1800712387940164
          0.12792213093361615
          0.2134528059138363
          0.19768855148571027
          0.1079044145605066
          0.10514852062010763
          0.08414236232881345
          0.1566477739135894
          0.13204567727483732
          0.06959680685806185
          0.05304714475116255
          0.9134846437558818
          0.11123073429467856
          0.06959936481302456
          0.9511071747489799
          0.13709536738831435
          0.07808038575820246
          0.3781236622468541
          0.131927698717311
          0.05317418613783273
          0.0590938759998904
          0.08672094433744476
          0.062421450073825734
          0.21300956963533868
          0.16158239849286118
          0.19499023067010152
          0.050562604139869
          0.051854206182387376
          0.10247580383765535
          0.1050840588309527
          0.11508711143812253
          0.05766845674900458
          0.25275018924986087
          0.07759080362132924
          0.08022104871733751
          0.09057034521950981
          0.05272502646059608
          0.05314554698717115
          0.07772711219996063
          0.053354457520539626
          0.08035291428707973
          0.36501389345202034
          0.1178544326711257
          0.06465994870295086
          0.09171068728485839
          0.10788478517415039
          0.06875317258591838
          0.09323119686493085
          0.050132577095941176
          0.5334769799731249
          0.0669066587953465
          0.054791545635643285
          0.052796717330886145
          0.05027853792943569
          0.05120246071929545
          0.059551098154651164
          0.11099476438656748
          0.053693968458181474
          0.168238206299928
          0.075773971674105