<?xml version="1.0" encoding="UTF-8" standalone="no" ?>
<VTKFile byte_order="LittleEndian" type="UnstructuredGrid" version="0.1">
  <UnstructuredGrid>
    <Piece NumberOfCells="0" NumberOfPoints="0">
      <PointData>
        <DataArray Name="characteristic-length" NumberOfComponents="1" format="ascii" type="Float32">
        </DataArray>
        <DataArray Name="mass" NumberOfComponents="1" format="ascii" type="Float32">
        </DataArray>
        <DataArray Name="area" NumberOfComponents="1" format="ascii" type="Float32">
        </DataArray>
        <DataArray Name="area-to-mass" NumberOfComponents="1" format="ascii" type="Float32">
        </DataArray>
        <DataArray Name="velocity" NumberOfComponents="3" format="ascii" type="Float32">
        </DataArray>
        <DataArray Name="ejection-velocity" NumberOfComponents="3" format="ascii" type="Float32">
        </DataArray>
      </PointData>
      <CellData/>
      <Points>
        <DataArray Name="position" NumberOfComponents="3" format="ascii" type="Float32">
        </DataArray>
      </Points>
      <Cells>
        <DataArray Name="types" NumberOfComponents="0" format="ascii" type="Float32"/>
      </Cells>
    </Piece>
  </UnstructuredGrid>
</VTKFile>
